Test system
 1.0
  3.0  0.0  0.0
  0.0  3.0  0.0
  0.0  0.0  3.0
Si
1
Direct
  0.0  0.0  0.0

   2   2   2
 1.0 2.0 3.0 4.0
 5.0 6.0 7.0 8.0

   2   2   2
 0.10 0.20 0.30 0.40
 0.50 0.60 0.70 0.80

   2   2   2
 0.01 0.02 0.03 0.04
 0.05 0.06 0.07 0.08

   2   2   2
 1.10 1.20 1.30 1.40
 1.50 1.60 1.70 1.80
